# vtk DataFile Version 2.0
 Generated by Mayank
ASCII
DATASET UNSTRUCTURED_GRID
POINTS      366 double
          0.00000000          0.00000000          0.00000000
          1.00000000          0.00000000          0.00000000
          0.00000000          0.00000000          0.05000000
          1.00000000          0.00000000          0.05000000
          0.00000000          0.00000000          0.10000000
          1.00000000          0.00000000          0.10000000
          0.00000000          0.16666667          0.00000000
          1.00000000          0.16666667          0.00000000
          0.00000000          0.16666667          0.05000000
          1.00000000          0.16666667          0.05000000
          0.00000000          0.16666667          0.10000000
          1.00000000          0.16666667          0.10000000
          0.00000000          0.33333333          0.00000000
          1.00000000          0.33333333          0.00000000
          0.00000000          0.33333333          0.05000000
          1.00000000          0.33333333          0.05000000
          0.00000000          0.33333333          0.10000000
          1.00000000          0.33333333          0.10000000
          0.00000000          0.50000000          0.00000000
          1.00000000          0.50000000          0.00000000
          0.00000000          0.50000000          0.05000000
          1.00000000          0.50000000          0.05000000
          0.00000000          0.50000000          0.10000000
          1.00000000          0.50000000          0.10000000
          0.00000000          0.66666667          0.00000000
          1.00000000          0.66666667          0.00000000
          0.00000000          0.66666667          0.05000000
          1.00000000          0.66666667          0.05000000
          0.00000000          0.66666667          0.10000000
          1.00000000          0.66666667          0.10000000
          0.00000000          0.83333333          0.00000000
          1.00000000          0.83333333          0.00000000
          0.00000000          0.83333333          0.05000000
          1.00000000          0.83333333          0.05000000
          0.00000000          0.83333333          0.10000000
          1.00000000          0.83333333          0.10000000
          0.00000000          1.00000000          0.00000000
          1.00000000          1.00000000          0.00000000
          0.00000000          1.00000000          0.05000000
          1.00000000          1.00000000          0.05000000
          0.00000000          1.00000000          0.10000000
          1.00000000          1.00000000          0.10000000
          0.00000000          1.16666667          0.00000000
          1.00000000          1.16666667          0.00000000
          0.00000000          1.16666667          0.05000000
          1.00000000          1.16666667          0.05000000
          0.00000000          1.16666667          0.10000000
          1.00000000          1.16666667          0.10000000
          0.00000000          1.33333333          0.00000000
          1.00000000          1.33333333          0.00000000
          0.00000000          1.33333333          0.05000000
          1.00000000          1.33333333          0.05000000
          0.00000000          1.33333333          0.10000000
          1.00000000          1.33333333          0.10000000
          0.00000000          1.50000000          0.00000000
          1.00000000          1.50000000          0.00000000
          0.00000000          1.50000000          0.05000000
          1.00000000          1.50000000          0.05000000
          0.00000000          1.50000000          0.10000000
          1.00000000          1.50000000          0.10000000
          0.00000000          1.66666667          0.00000000
          1.00000000          1.66666667          0.00000000
          0.00000000          1.66666667          0.05000000
          1.00000000          1.66666667          0.05000000
          0.00000000          1.66666667          0.10000000
          1.00000000          1.66666667          0.10000000
          0.00000000          1.83333333          0.00000000
          1.00000000          1.83333333          0.00000000
          0.00000000          1.83333333          0.05000000
          1.00000000          1.83333333          0.05000000
          0.00000000          1.83333333          0.10000000
          1.00000000          1.83333333          0.10000000
          0.00000000          2.00000000          0.00000000
          1.00000000          2.00000000          0.00000000
          0.00000000          2.00000000          0.05000000
          1.00000000          2.00000000          0.05000000
          0.00000000          2.00000000          0.10000000
          1.00000000          2.00000000          0.10000000
          0.00000000          2.16666667          0.00000000
          1.00000000          2.16666667          0.00000000
          0.00000000          2.16666667          0.05000000
          1.00000000          2.16666667          0.05000000
          0.00000000          2.16666667          0.10000000
          1.00000000          2.16666667          0.10000000
          0.00000000          2.33333333          0.00000000
          1.00000000          2.33333333          0.00000000
          0.00000000          2.33333333          0.05000000
          1.00000000          2.33333333          0.05000000
          0.00000000          2.33333333          0.10000000
          1.00000000          2.33333333          0.10000000
          0.00000000          2.50000000          0.00000000
          1.00000000          2.50000000          0.00000000
          0.00000000          2.50000000          0.05000000
          1.00000000          2.50000000          0.05000000
          0.00000000          2.50000000          0.10000000
          1.00000000          2.50000000          0.10000000
          0.00000000          2.66666667          0.00000000
          1.00000000          2.66666667          0.00000000
          0.00000000          2.66666667          0.05000000
          1.00000000          2.66666667          0.05000000
          0.00000000          2.66666667          0.10000000
          1.00000000          2.66666667          0.10000000
          0.00000000          2.83333333          0.00000000
          1.00000000          2.83333333          0.00000000
          0.00000000          2.83333333          0.05000000
          1.00000000          2.83333333          0.05000000
          0.00000000          2.83333333          0.10000000
          1.00000000          2.83333333          0.10000000
          0.00000000          3.00000000          0.00000000
          1.00000000          3.00000000          0.00000000
          0.00000000          3.00000000          0.05000000
          1.00000000          3.00000000          0.05000000
          0.00000000          3.00000000          0.10000000
          1.00000000          3.00000000          0.10000000
          0.00000000          3.16666667          0.00000000
          1.00000000          3.16666667          0.00000000
          0.00000000          3.16666667          0.05000000
          1.00000000          3.16666667          0.05000000
          0.00000000          3.16666667          0.10000000
          1.00000000          3.16666667          0.10000000
          0.00000000          3.33333333          0.00000000
          1.00000000          3.33333333          0.00000000
          0.00000000          3.33333333          0.05000000
          1.00000000          3.33333333          0.05000000
          0.00000000          3.33333333          0.10000000
          1.00000000          3.33333333          0.10000000
          0.00000000          3.50000000          0.00000000
          1.00000000          3.50000000          0.00000000
          0.00000000          3.50000000          0.05000000
          1.00000000          3.50000000          0.05000000
          0.00000000          3.50000000          0.10000000
          1.00000000          3.50000000          0.10000000
          0.00000000          3.66666667          0.00000000
          1.00000000          3.66666667          0.00000000
          0.00000000          3.66666667          0.05000000
          1.00000000          3.66666667          0.05000000
          0.00000000          3.66666667          0.10000000
          1.00000000          3.66666667          0.10000000
          0.00000000          3.83333333          0.00000000
          1.00000000          3.83333333          0.00000000
          0.00000000          3.83333333          0.05000000
          1.00000000          3.83333333          0.05000000
          0.00000000          3.83333333          0.10000000
          1.00000000          3.83333333          0.10000000
          0.00000000          4.00000000          0.00000000
          1.00000000          4.00000000          0.00000000
          0.00000000          4.00000000          0.05000000
          1.00000000          4.00000000          0.05000000
          0.00000000          4.00000000          0.10000000
          1.00000000          4.00000000          0.10000000
          0.00000000          4.16666667          0.00000000
          1.00000000          4.16666667          0.00000000
          0.00000000          4.16666667          0.05000000
          1.00000000          4.16666667          0.05000000
          0.00000000          4.16666667          0.10000000
          1.00000000          4.16666667          0.10000000
          0.00000000          4.33333333          0.00000000
          1.00000000          4.33333333          0.00000000
          0.00000000          4.33333333          0.05000000
[...]
POINT_DATA      366
VECTORS Displacements double
         0.000000000E+00         0.000000000E+00         0.000000000E+00
         0.000000000E+00         0.000000000E+00         0.000000000E+00
         0.000000000E+00         0.000000000E+00         0.000000000E+00
         0.000000000E+00         0.000000000E+00         0.000000000E+00
         0.000000000E+00         0.000000000E+00         0.000000000E+00
         0.000000000E+00         0.000000000E+00         0.000000000E+00
         0.818191878E-03         0.664916486E-03        -0.606292077E-04
        -0.177255514E-04         0.139663315E-02         0.661529513E-03
         0.746455313E-03         0.614764612E-03        -0.103610473E-03
        -0.210274825E-04         0.120913736E-02         0.600172508E-03
         0.671410618E-03         0.559331344E-03        -0.142136997E-03
        -0.227582124E-04         0.103657550E-02         0.545155478E-03
         0.136793592E-02         0.134674822E-02         0.109114323E-04
         0.201065305E-03         0.251795225E-02         0.148320429E-02
         0.124936409E-02         0.123331254E-02        -0.371072914E-04
         0.181410502E-03         0.221705171E-02         0.141740553E-02
         0.112482123E-02         0.111300837E-02        -0.802311436E-04
         0.161524940E-03         0.193127931E-02         0.135835413E-02
         0.187725889E-02         0.205057570E-02         0.367047054E-03
         0.464836349E-03         0.348368028E-02         0.259158656E-02
         0.170708469E-02         0.186097477E-02         0.318208177E-03
         0.419924393E-03         0.309108682E-02         0.252937501E-02
         0.153109828E-02         0.166633599E-02         0.274262377E-03
         0.374385825E-03         0.271182950E-02         0.247346006E-02
         0.229976548E-02         0.278100605E-02         0.103538363E-02
         0.771672417E-03         0.438673301E-02         0.400226739E-02
         0.208465710E-02         0.251090560E-02         0.986132680E-03
         0.696285213E-03         0.391013706E-02         0.394330765E-02
         0.186457262E-02         0.223812969E-02         0.941739276E-03
         0.620158403E-03         0.344455354E-02         0.389023571E-02
         0.267386778E-02         0.354718713E-02         0.202518535E-02
         0.108824521E-02         0.524843327E-02         0.570853328E-02
         0.241736618E-02         0.319324017E-02         0.197483641E-02
         0.980667463E-03         0.469065698E-02         0.565173767E-02
         0.215716369E-02         0.283887918E-02         0.192938368E-02
         0.872469371E-03         0.414188553E-02         0.560051932E-02
         0.300928545E-02         0.434223511E-02         0.333106821E-02
         0.141073154E-02         0.608463391E-02         0.770271471E-02
         0.271554151E-02         0.390298540E-02         0.327941286E-02
         0.127022722E-02         0.544644527E-02         0.764719084E-02
         0.241930296E-02         0.346507718E-02         0.323271065E-02
         0.112926385E-02         0.481570288E-02         0.759701255E-02
         0.332092196E-02         0.515498079E-02         0.494499903E-02
         0.173236896E-02         0.689950982E-02         0.997862176E-02
         0.299311388E-02         0.463011208E-02         0.489213329E-02
         0.155901463E-02         0.618125476E-02         0.992369363E-02
         0.266377793E-02         0.410780781E-02         0.484425667E-02
         0.138536265E-02         0.546932674E-02         0.987393379E-02
         0.361773210E-02         0.597349022E-02         0.685823344E-02
         0.205088640E-02         0.769442672E-02         0.125305716E-01
         0.325820786E-02         0.536350790E-02         0.680428635E-02
         0.184503595E-02         0.689653423E-02         0.124757620E-01
         0.289785858E-02         0.475688315E-02         0.675533695E-02
         0.163903374E-02         0.610420903E-02         0.124259786E-01
         0.390505902E-02         0.678849423E-02         0.906245300E-02
         0.236451475E-02         0.846947869E-02         0.153535152E-01
         0.351550586E-02         0.609440773E-02         0.900757515E-02
         0.212672872E-02         0.759261867E-02         0.152984636E-01
         0.312560433E-02         0.540416260E-02         0.895767223E-02
         0.188891234E-02         0.672083627E-02         0.152483203E-01
         0.418581565E-02         0.759289155E-02         0.115501418E-01
         0.267268319E-02         0.922426598E-02         0.184425237E-01
         0.376745325E-02         0.681604578E-02         0.114944073E-01
         0.240358800E-02         0.826938351E-02         0.183869765E-01
         0.334904775E-02         0.604332248E-02         0.114436017E-01
         0.213455667E-02         0.731927460E-02         0.183362338E-01
         0.446102571E-02         0.838226091E-02         0.143144550E-01
         0.297510721E-02         0.995836625E-02         0.217926672E-01
         0.401480521E-02         0.752417139E-02         0.142578812E-01
         0.267535363E-02         0.892661710E-02         0.217364395E-01
         0.356872752E-02         0.667035719E-02         0.142061740E-01
         0.237573237E-02         0.789946036E-02         0.216849204E-01
         0.473100853E-02         0.915379106E-02         0.173490259E-01
         0.327169826E-02         0.106713722E-01         0.253989815E-01
         0.425772050E-02         0.821605631E-02         0.172915992E-01
         0.294193230E-02         0.956406616E-02         0.253419248E-01
         0.378468213E-02         0.728267322E-02         0.172389651E-01
         0.261234588E-02         0.846124959E-02         0.252894860E-01
         0.499582132E-02         0.990572631E-02         0.206478637E-01
         0.356245726E-02         0.113628902E-01         0.292563574E-01
         0.449615378E-02         0.888997756E-02         0.205895316E-01
         0.320331072E-02         0.101814529E-01         0.291983591E-01
         0.399679408E-02         0.787861501E-02         0.205359117E-01
         0.284437431E-02         0.900444806E-02         0.291448899E-01
         0.525533099E-02         0.106370857E-01         0.242052015E-01
         0.384737917E-02         0.120326022E-01         0.333595918E-01
         0.472992319E-02         0.954496076E-02         0.241458981E-01
         0.345946984E-02         0.107785283E-01         0.333005580E-01
         0.420485211E-02         0.845723388E-02         0.240912227E-01
         0.307178942E-02         0.952885658E-02         0.332459656E-01
         0.550940914E-02         0.113472433E-01         0.280154014E-01
         0.412646667E-02         0.126802301E-01         0.377034113E-01
         0.495887278E-02         0.101803772E-01         0.279550576E-01
         0.371040003E-02         0.113550586E-01         0.376432606E-01
         0.440868507E-02         0.901790966E-02         0.278992555E-01
         0.329457334E-02         0.100342745E-01         0.375874642E-01
         0.575795956E-02         0.120357927E-01         0.320729176E-01
         0.439972216E-02         0.133055316E-01         0.422824744E-01
         0.518288976E-02         0.107958124E-01         0.320114622E-01
         0.395609514E-02         0.119108318E-01         0.422211378E-01
         0.460817165E-02         0.956022653E-02         0.319544610E-01
         0.351271427E-02         0.105205120E-01         0.421640680E-01
         0.600090360E-02         0.127024539E-01         0.363722544E-01
         0.466714365E-02         0.139083123E-01         0.470914020E-01
         0.540188866E-02         0.113909798E-01         0.363096206E-01
         0.419654766E-02         0.124456693E-01         0.470288187E-01
         0.480322388E-02         0.100838945E-01         0.362513531E-01
         0.372620116E-02         0.109874030E-01         0.469704148E-01
         0.623818559E-02         0.133470026E-01         0.409079424E-01
         0.492873280E-02         0.144884097E-01         0.521247928E-01
         0.561581027E-02         0.119656499E-01         0.408440698E-01
         0.443175566E-02         0.129594182E-01         0.520609101E-01
         0.499378149E-02         0.105886803E-01         0.407844754E-01
         0.393502989E-02         0.114348015E-01         0.520011188E-01
         0.646977029E-02         0.139692523E-01         0.456745319E-01
         0.518449011E-02         0.150456909E-01         0.573772317E-01
         0.582461747E-02         0.125196319E-01         0.456093668E-01
         0.466171777E-02         0.134519509E-01         0.573120043E-01
         0.517980693E-02         0.110743897E-01         0.455483913E-01
         0.413919802E-02         0.118625847E-01         0.572507800E-01
         0.669563249E-02         0.145690412E-01         0.506665845E-01
         0.543441722E-02         0.155800547E-01         0.628432977E-01
         0.602828459E-02         0.130527614E-01         0.506000801E-01
         0.488643461E-02         0.139231687E-01         0.627766870E-01
         0.536127471E-02         0.115408556E-01         0.505376768E-01
         0.433870563E-02         0.122706561E-01         0.627139910E-01
         0.691575209E-02         0.151462261E-01         0.558786661E-01
         0.567851926E-02         0.160914225E-01         0.685175663E-01
         0.622679142E-02         0.135648934E-01         0.558107833E-01
         0.510591087E-02         0.143729947E-01         0.684495410E-01
         0.553816482E-02         0.119879315E-01         0.557469128E-01
         0.453355716E-02         0.126589396E-01         0.683853414E-01
         0.713011582E-02         0.157006801E-01         0.613053482E-01
         0.591680024E-02         0.165797389E-01         0.743946150E-01
         0.642012478E-02         0.140559000E-01         0.612360549E-01
         0.532015038E-02         0.148013736E-01         0.743251501E-01
         0.571046428E-02         0.124154879E-01         0.611706850E-01
         0.472375643E-02         0.130273804E-01         0.742594220E-01
         0.733871228E-02         0.162322956E-01         0.669412063E-01
         0.614926454E-02         0.170449719E-01         0.804690226E-01
         0.660827344E-02         0.145256726E-01         0.668704772E-01
         0.552915749E-02         0.152082734E-01         0.803980998E-01
         0.587816209E-02         0.128234158E-01         0.668035823E-01
         0.490930780E-02         0.133759467E-01         0.803308243E-01
         0.754152978E-02         0.167409826E-01         0.727808164E-01
         0.637591900E-02         0.174871071E-01         0.867353688E-01
         0.679122589E-02         0.149741209E-01         0.727086333E-01
         0.573293908E-02         0.155936797E-01         0.866629763E-01
         0.604124686E-02         0.132116240E-01         0.726401950E-01
         0.509021821E-02         0.137046239E-01         0.865941414E-01
         0.773855997E-02         0.172266675E-01         0.788187584E-01
         0.659676885E-02         0.179061493E-01         0.931882377E-01
         0.696897392E-02         0.154011709E-01         0.787451093E-01
         0.593150044E-02         0.159575970E-01         0.931143697E-01
         0.619971050E-02         0.135800382E-01         0.786751157E-01
         0.526649301E-02         0.140134163E-01         0.930439695E-01
         0.792979429E-02         0.176892971E-01         0.850496146E-01
         0.681181899E-02         0.183021230E-01         0.998222155E-01
         0.714150908E-02         0.158067691E-01         0.849744941E-01
         0.612484652E-02         0.163000495E-01         0.997468724E-01
         0.635354466E-02         0.139286044E-01         0.849029391E-01
         0.543813717E-02         0.143023478E-01         0.996749068E-01
         0.811522292E-02         0.181288359E-01         0.914679681E-01
         0.702107618E-02         0.186750677E-01         0.106631890E+00
         0.730882166E-02         0.161908798E-01         0.913913769E-01
         0.631298416E-02         0.166210766E-01         0.106555078E+00
         0.650273968E-02         0.142572870E-01         0.913182612E-01
         0.560515760E-02         0.145714577E-01         0.106481554E+00
         0.829483870E-02         0.185452652E-01         0.980684055E-01
         0.722454551E-02         0.190250401E-01         0.113611853E+00
         0.747090454E-02         0.165534841E-01         0.979903502E-01
         0.649591847E-02         0.169207344E-01         0.113533585E+00
         0.664728848E-02         0.145660665E-01         0.979156802E-01
         0.576755943E-02         0.148208018E-01         0.113458513E+00
         0.846863385E-02         0.189385856E-01         0.104845516E+00
         0.742223154E-02         0.193521139E-01         0.120756699E+00
         0.762775000E-02         0.168945826E-01         0.104766009E+00
         0.667365406E-02         0.171990968E-01         0.120676992E+00
         0.678718339E-02         0.148549434E-01         0.104689797E+00
         0.592534728E-02         0.150504536E-01         0.120600390E+00
         0.863659936E-02         0.193088153E-01         0.111793890E+00
         0.761414043E-02         0.196563769E-01         0.128061024E+00
         0.777934908E-02         0.172141929E-01         0.111712949E+00
         0.684619713E-02         0.174562510E-01         0.127979901E+00
         0.692241545E-02         0.151239352E-01         0.111635212E+00
         0.607852740E-02         0.152605004E-01         0.127901792E+00
         0.879872860E-02         0.196559876E-01         0.118908120E+00
         0.780027675E-02         0.199379317E-01         0.135519427E+00
         0.792569518E-02         0.175123483E-01         0.118825769E+00
         0.701355225E-02         0.176922996E-01         0.135436917E+00
         0.705297809E-02         0.153730750E-01         0.118746531E+00
         0.622710437E-02         0.154510443E-01         0.135357329E+00
         0.895501436E-02         0.199801541E-01         0.126182805E+00
         0.798064453E-02         0.201968967E-01         0.143126511E+00
         0.806678111E-02         0.177891003E-01         0.126099072E+00
         0.717572349E-02         0.179073606E-01         0.143042646E+00
         0.717886415E-02         0.156024138E-01         0.126018361E+00
         0.637108226E-02         0.156222031E-01         0.142961612E+00
         0.910544831E-02         0.202813823E-01         0.133612540E+00
         0.815524922E-02         0.204334023E-01         0.150876879E+00
         0.820259857E-02         0.180445161E-01         0.133527459E+00
         0.733271633E-02         0.181015644E-01         0.150791698E+00
         0.730006533E-02         0.158120189E-01         0.133445308E+00
         0.651046658E-02         0.157741072E-01         0.150709257E+00
         0.925002432E-02         0.205597538E-01         0.141191927E+00
         0.832409478E-02         0.206475927E-01         0.158765139E+00
         0.833314144E-02         0.182786771E-01         0.141105537E+00
         0.748453476E-02         0.182750547E-01         0.158678685E+00
         0.741657553E-02         0.160019712E-01         0.141021985E+00
         0.664526132E-02         0.159068999E-01         0.158594879E+00
         0.938873569E-02         0.208153667E-01         0.148915570E+00
         0.848718474E-02         0.208396256E-01         0.166785899E+00
         0.845840309E-02         0.184916811E-01         0.148827914E+00
         0.763118228E-02         0.184279894E-01         0.166698220E+00
         0.752838813E-02         0.161723686E-01         0.148743004E+00
         0.677547001E-02         0.160207389E-01         0.166613096E+00
         0.952157482E-02         0.210483333E-01         0.156778075E+00
         0.864452380E-02         0.210096699E-01         0.174933772E+00
         0.857837589E-02         0.186836404E-01         0.156689200E+00
         0.777266366E-02         0.185605368E-01         0.174844920E+00
         0.763549554E-02         0.163233230E-01         0.156602980E+00
         0.690109741E-02         0.161157923E-01         0.174758530E+00
         0.964853605E-02         0.212587788E-01         0.164774049E+00
         0.879611536E-02         0.211579060E-01         0.183203372E+00
         0.869305424E-02         0.188546798E-01         0.164684008E+00
         0.790898230E-02         0.186728774E-01         0.183113402E+00
         0.773789215E-02         0.164549591E-01         0.164596529E+00
         0.702214696E-02         0.161922405E-01         0.183025802E+00
         0.976961331E-02         0.214468432E-01         0.172898105E+00
         0.894196244E-02         0.212845266E-01         0.191589316E+00
         0.880243207E-02         0.190049392E-01         0.172806954E+00
         0.804014124E-02         0.187652035E-01         0.191498289E+00
         0.783557194E-02         0.165674164E-01         0.172718273E+00
         0.713862167E-02         0.162502755E-01         0.191409539E+00
         0.988479967E-02         0.216126790E-01         0.181144854E+00
         0.908206913E-02         0.213897338E-01         0.200086222E+00
         0.890650253E-02         0.191345710E-01         0.181052654E+00
         0.816614459E-02         0.188377172E-01         0.199994202E+00
         0.792852806E-02         0.166608472E-01         0.180962830E+00
         0.725052570E-02         0.162900993E-01         0.199904366E+00
         0.999409006E-02         0.217564504E-01         0.189508914E+00
         0.921643839E-02         0.214737398E-01         0.208688713E+00
         0.900526055E-02         0.192437389E-01         0.189415729E+00
         0.828699534E-02         0.188906305E-01         0.208595768E+00
         0.801675548E-02         0.167354152E-01         0.189324827E+00
         0.735786204E-02         0.163119237E-01         0.208504913E+00
         0.100974790E-01         0.218783347E-01         0.197984903E+00
         0.934507297E-02         0.215367672E-01         0.217391412E+00
         0.909870074E-02         0.193326202E-01         0.197890800E+00
         0.840269629E-02         0.189241660E-01         0.217297613E+00
         0.810024884E-02         0.167912969E-01         0.197798887E+00
         0.746063350E-02         0.163159711E-01         0.217205810E+00
         0.101949604E-01         0.219785203E-01         0.206567442E+00
         0.946797668E-02         0.215790471E-01         0.226188946E+00
         0.918681707E-02         0.194014028E-01         0.206472493E+00
         0.851325134E-02         0.189385545E-01         0.226094367E+00
         0.817900218E-02         0.168286805E-01         0.206379641E+00
         0.755884403E-02         0.163024724E-01         0.226001691E+00
         0.102865298E-01         0.220572060E-01         0.215251156E+00
         0.958515259E-02         0.216008192E-01         0.235075941E+00
         0.926960519E-02         0.194502853E-01         0.215155436E+00
         0.861866368E-02         0.189340358E-01         0.234980661E+00
         0.825301120E-02         0.168477637E-01         0.215061718E+00
         0.765249689E-02         0.162716671E-01         0.234887188E+00
         0.103721824E-01         0.221146021E-01         0.224030671E+00
         0.969660376E-02         0.216023334E-01         0.244047029E+00
         0.934706048E-02         0.194794771E-01         0.223934258E+00
         0.871893664E-02         0.189108598E-01         0.243951127E+00
         0.832227141E-02         0.168487559E-01         0.223839752E+00